 Gaussian 03, Revision E.01,
 Gaussian 03:  EM64L-G03RevE.01 11-Sep-2007

 ---------------------------------------------------
 #N CCSD(T, T1Diag, CONVER=5)/cc-pVQZ SCF=Tight Scan
 ---------------------------------------------------

 ---
 Ne2
 ---
 Symbolic Z-matrix:
 Charge =  0 Multiplicity = 1

 SCF Done:  E(RHF) =  -257.086123680     A.U. after    8 cycles
 CCSD(T)= -0.25768690149D+03

 The electronic state is 1-SGG.
 Alpha  occ. eigenvalues --  -32.77082 -32.77082  -1.93067  -1.92747  -0.86056
 Alpha  occ. eigenvalues --   -0.85045  -0.85045  -0.84673  -0.84673  -0.83713
 Alpha virt. eigenvalues --    0.68912   0.76427   0.76427   0.85569   0.85765
 Alpha virt. eigenvalues --    0.85765   0.92103   1.17090   1.96156   1.98656
 Alpha virt. eigenvalues --    1.98656   1.99704   1.99704   1.99878   1.99878

 Mulliken atomic charges:
              1
     1  Ne   0.000000
     2  Ne   0.000000
 Sum of Mulliken charges=   0.00000

 Dipole moment (field-independent basis, Debye):
    X=     0.0000    Y=     0.0000    Z=     0.0000  Tot=     0.0000
 Quadrupole moment (field-independent basis, Debye-Ang):
   XX=    -8.3674   YY=    -8.3674   ZZ=    -8.3862
   XY=     0.0000   XZ=     0.0000   YZ=     0.0000

 SCF Done:  E(RHF) =  -257.086452186     A.U. after    6 cycles
 CCSD(T)= -0.25768717679D+03
 SCF Done:  E(RHF) =  -257.086658554     A.U. after    6 cycles
 CCSD(T)= -0.25768733828D+03
 SCF Done:  E(RHF) =  -257.086787690     A.U. after    5 cycles
 CCSD(T)= -0.25768742916D+03
 SCF Done:  E(RHF) =  -257.086867304     A.U. after    6 cycles
 CCSD(T)= -0.25768747594D+03
 SCF Done:  E(RHF) =  -257.086914793     A.U. after    5 cycles
 CCSD(T)= -0.25768749517D+03
 SCF Done:  E(RHF) =  -257.086941389     A.U. after    5 cycles
 CCSD(T)= -0.25768749751D+03
 SCF Done:  E(RHF) =  -257.086954566     A.U. after    5 cycles
 CCSD(T)= -0.25768749004D+03
 SCF Done:  E(RHF) =  -257.086959416     A.U. after    4 cycles
 CCSD(T)= -0.25768747750D+03
 SCF Done:  E(RHF) =  -257.086959429     A.U. after    4 cycles
 CCSD(T)= -0.25768746307D+03
 SCF Done:  E(RHF) =  -257.086956963     A.U. after    4 cycles
 CCSD(T)= -0.25768744877D+03
 SCF Done:  E(RHF) =  -257.086953541     A.U. after    4 cycles
 CCSD(T)= -0.25768743577D+03
 SCF Done:  E(RHF) =  -257.086950073     A.U. after    3 cycles
 CCSD(T)= -0.25768742464D+03
 SCF Done:  E(RHF) =  -257.086947033     A.U. after    3 cycles
 CCSD(T)= -0.25768741549D+03
 SCF Done:  E(RHF) =  -257.086944603     A.U. after    3 cycles
 CCSD(T)= -0.25768740822D+03

                         Standard orientation:
 ---------------------------------------------------------------------
 Center     Atomic     Atomic              Coordinates (Angstroms)
 Number     Number      Type              X           Y           Z
 ---------------------------------------------------------------------
    1         10             0        0.000000    0.000000    2.050000
    2         10             0        0.000000    0.000000   -2.050000
 ---------------------------------------------------------------------

 SCF Done:  E(RHF) =  -257.086942791     A.U. after    3 cycles
 CCSD(T)= -0.25768740256D+03
 7.6763453,-257.6763369,-257.6763301,-257.6763248\CCSD(T)=-257.6869015,
 Normal termination of Gaussian 03 at Thu Oct 29 17:47:50 2020.
